# LAMMPS data file: 1x1 MoS2 primitive cell

3 atoms
2 atom types

0.0 3.18 xlo xhi
0.0 5.50 ylo yhi
0.0 40.0 zlo zhi

Masses

1 95.94  # Mo
2 32.065 # S

Atoms  # atomic

1 1 1.59 2.75 20.0       # Mo center
2 2 1.59 2.75 21.6       # S top
3 2 1.59 2.75 18.4       # S bottom
